+ 0.001 /NodeList/6/DeviceList/4/$ns3::CsmaNetDevice/TxQueue/Enqueue ns3::EthernetHeader ( length/type=0xffff, source=00:00:00:00:00:06, destination=33:33:ff:00:00:06) ns3::SixLowPanIphc (Compression kind: 31497) ns3::Icmpv6NS (( type = 135 (NS) code = 0 target = fe80::200:ff:fe00:6 checksum = 3194)) ns3::Icmpv6OptionLinkLayerAddress (( type = 1 length = 1 L2 Address = 00-06-00:00:00:00:00:06)) ns3::EthernetTrailer (fcs=0)
- 0.001 /NodeList/6/DeviceList/4/$ns3::CsmaNetDevice/TxQueue/Dequeue ns3::EthernetHeader ( length/type=0xffff, source=00:00:00:00:00:06, destination=33:33:ff:00:00:06) ns3::SixLowPanIphc (Compression kind: 31497) ns3::Icmpv6NS (( type = 135 (NS) code = 0 target = fe80::200:ff:fe00:6 checksum = 3194)) ns3::Icmpv6OptionLinkLayerAddress (( type = 1 length = 1 L2 Address = 00-06-00:00:00:00:00:06)) ns3::EthernetTrailer (fcs=0)
+ 0.001 /NodeList/6/DeviceList/5/$ns3::CsmaNetDevice/TxQueue/Enqueue ns3::EthernetHeader ( length/type=0xffff, source=00:00:00:00:00:08, destination=33:33:ff:00:00:08) ns3::SixLowPanIphc (Compression kind: 31497) ns3::Icmpv6NS (( type = 135 (NS) code = 0 target = fe80::200:ff:fe00:8 checksum = 1658)) ns3::Icmpv6OptionLinkLayerAddress (( type = 1 length = 1 L2 Address = 00-06-00:00:00:00:00:08)) ns3::EthernetTrailer (fcs=0)
- 0.001 /NodeList/6/DeviceList/5/$ns3::CsmaNetDevice/TxQueue/Dequeue ns3::EthernetHeader ( length/type=0xffff, source=00:00:00:00:00:08, destination=33:33:ff:00:00:08) ns3::SixLowPanIphc (Compression kind: 31497) ns3::Icmpv6NS (( type = 135 (NS) code = 0 target = fe80::200:ff:fe00:8 checksum = 1658)) ns3::Icmpv6OptionLinkLayerAddress (( type = 1 length = 1 L2 Address = 00-06-00:00:00:00:00:08)) ns3::EthernetTrailer (fcs=0)
+ 0.001 /NodeList/6/DeviceList/2/$ns3::CsmaNetDevice/TxQueue/Enqueue ns3::EthernetHeader ( length/type=0x86dd, source=00:00:00:00:00:01, destination=33:33:ff:00:00:01) ns3::Ipv6Header ((Version 6 Traffic class 0x0 DSCP Default Flow Label 0x0 Payload Length 32 Next Header 58 Hop Limit 255 ):: > ff02::1:ff00:1) ns3::Icmpv6NS (( type = 135 (NS) code = 0 target = 2001:2::200:ff:fe00:1 checksum = 39256)) ns3::Icmpv6OptionLinkLayerAddress (( type = 1 length = 1 L2 Address = 00-06-00:00:00:00:00:01)) ns3::EthernetTrailer (fcs=0)
- 0.001 /NodeList/6/DeviceList/2/$ns3::CsmaNetDevice/TxQueue/Dequeue ns3::EthernetHeader ( length/type=0x86dd, source=00:00:00:00:00:01, destination=33:33:ff:00:00:01) ns3::Ipv6Header ((Version 6 Traffic class 0x0 DSCP Default Flow Label 0x0 Payload Length 32 Next Header 58 Hop Limit 255 ):: > ff02::1:ff00:1) ns3::Icmpv6NS (( type = 135 (NS) code = 0 target = 2001:2::200:ff:fe00:1 checksum = 39256)) ns3::Icmpv6OptionLinkLayerAddress (( type = 1 length = 1 L2 Address = 00-06-00:00:00:00:00:01)) ns3::EthernetTrailer (fcs=0)
+ 0.002 /NodeList/6/DeviceList/3/$ns3::CsmaNetDevice/TxQueue/Enqueue ns3::EthernetHeader ( length/type=0xffff, source=00:00:00:00:00:04, destination=33:33:ff:00:00:04) ns3::SixLowPanIphc (Compression kind: 31497) ns3::Icmpv6NS (( type = 135 (NS) code = 0 target = 2001:1::200:ff:fe00:4 checksum = 37208)) ns3::Icmpv6OptionLinkLayerAddress (( type = 1 length = 1 L2 Address = 00-06-00:00:00:00:00:04)) ns3::EthernetTrailer (fcs=0)
- 0.002 /NodeList/6/DeviceList/3/$ns3::CsmaNetDevice/TxQueue/Dequeue ns3::EthernetHeader ( length/type=0xffff, source=00:00:00:00:00:04, destination=33:33:ff:00:00:04) ns3::SixLowPanIphc (Compression kind: 31497) ns3::Icmpv6NS (( type = 135 (NS) code = 0 target = 2001:1::200:ff:fe00:4 checksum = 37208)) ns3::Icmpv6OptionLinkLayerAddress (( type = 1 length = 1 L2 Address = 00-06-00:00:00:00:00:04)) ns3::EthernetTrailer (fcs=0)
+ 0.002 /NodeList/2/DeviceList/1/$ns3::CsmaNetDevice/TxQueue/Enqueue ns3::EthernetHeader ( length/type=0xffff, source=00:00:00:00:00:07, destination=33:33:ff:00:00:07) ns3::SixLowPanIphc (Compression kind: 31497) ns3::Icmpv6NS (( type = 135 (NS) code = 0 target = 2001:4::200:ff:fe00:7 checksum = 34136)) ns3::Icmpv6OptionLinkLayerAddress (( type = 1 length = 1 L2 Address = 00-06-00:00:00:00:00:07)) ns3::EthernetTrailer (fcs=0)
- 0.002 /NodeList/2/DeviceList/1/$ns3::CsmaNetDevice/TxQueue/Dequeue ns3::EthernetHeader ( length/type=0xffff, source=00:00:00:00:00:07, destination=33:33:ff:00:00:07) ns3::SixLowPanIphc (Compression kind: 31497) ns3::Icmpv6NS (( type = 135 (NS) code = 0 target = 2001:4::200:ff:fe00:7 checksum = 34136)) ns3::Icmpv6OptionLinkLayerAddress (( type = 1 length = 1 L2 Address = 00-06-00:00:00:00:00:07)) ns3::EthernetTrailer (fcs=0)
+ 0.002 /NodeList/5/DeviceList/1/$ns3::CsmaNetDevice/TxQueue/Enqueue ns3::EthernetHeader ( length/type=0xffff, source=00:00:00:00:00:0b, destination=33:33:ff:00:00:0b) ns3::SixLowPanIphc (Compression kind: 31497) ns3::Icmpv6NS (( type = 135 (NS) code = 0 target = 2001:6::200:ff:fe00:b checksum = 30552)) ns3::Icmpv6OptionLinkLayerAddress (( type = 1 length = 1 L2 Address = 00-06-00:00:00:00:00:0b)) ns3::EthernetTrailer (fcs=0)
- 0.002 /NodeList/5/DeviceList/1/$ns3::CsmaNetDevice/TxQueue/Dequeue ns3::EthernetHeader ( length/type=0xffff, source=00:00:00:00:00:0b, destination=33:33:ff:00:00:0b) ns3::SixLowPanIphc (Compression kind: 31497) ns3::Icmpv6NS (( type = 135 (NS) code = 0 target = 2001:6::200:ff:fe00:b checksum = 30552)) ns3::Icmpv6OptionLinkLayerAddress (( type = 1 length = 1 L2 Address = 00-06-00:00:00:00:00:0b)) ns3::EthernetTrailer (fcs=0)
+ 0.002 /NodeList/6/DeviceList/7/$ns3::CsmaNetDevice/TxQueue/Enqueue ns3::EthernetHeader ( length/type=0xffff, source=00:00:00:00:00:0c, destination=33:33:ff:00:00:0c) ns3::SixLowPanIphc (Compression kind: 31497) ns3::Icmpv6NS (( type = 135 (NS) code = 0 target = fe80::200:ff:fe00:c checksum = 64121)) ns3::Icmpv6OptionLinkLayerAddress (( type = 1 length = 1 L2 Address = 00-06-00:00:00:00:00:0c)) ns3::EthernetTrailer (fcs=0)
- 0.002 /NodeList/6/DeviceList/7/$ns3::CsmaNetDevice/TxQueue/Dequeue ns3::EthernetHeader ( length/type=0xffff, source=00:00:00:00:00:0c, destination=33:33:ff:00:00:0c) ns3::SixLowPanIphc (Compression kind: 31497) ns3::Icmpv6NS (( type = 135 (NS) code = 0 target = fe80::200:ff:fe00:c checksum = 64121)) ns3::Icmpv6OptionLinkLayerAddress (( type = 1 length = 1 L2 Address = 00-06-00:00:00:00:00:0c)) ns3::EthernetTrailer (fcs=0)
+ 0.002 /NodeList/6/DeviceList/7/$ns3::CsmaNetDevice/TxQueue/Enqueue ns3::EthernetHeader ( length/type=0xffff, source=00:00:00:00:00:0c, destination=33:33:ff:00:00:0c) ns3::SixLowPanIphc (Compression kind: 31497) ns3::Icmpv6NS (( type = 135 (NS) code = 0 target = 2001:6::200:ff:fe00:c checksum = 29784)) ns3::Icmpv6OptionLinkLayerAddress (( type = 1 length = 1 L2 Address = 00-06-00:00:00:00:00:0c)) ns3::EthernetTrailer (fcs=0)
+ 0.003 /NodeList/6/DeviceList/3/$ns3::CsmaNetDevice/TxQueue/Enqueue ns3::EthernetHeader ( length/type=0xffff, source=00:00:00:00:00:04, destination=33:33:ff:00:00:04) ns3::SixLowPanIphc (Compression kind: 31497) ns3::Icmpv6NS (( type = 135 (NS) code = 0 target = fe80::200:ff:fe00:4 checksum = 4730)) ns3::Icmpv6OptionLinkLayerAddress (( type = 1 length = 1 L2 Address = 00-06-00:00:00:00:00:04)) ns3::EthernetTrailer (fcs=0)
- 0.003 /NodeList/6/DeviceList/3/$ns3::CsmaNetDevice/TxQueue/Dequeue ns3::EthernetHeader ( length/type=0xffff, source=00:00:00:00:00:04, destination=33:33:ff:00:00:04) ns3::SixLowPanIphc (Compression kind: 31497) ns3::Icmpv6NS (( type = 135 (NS) code = 0 target = fe80::200:ff:fe00:4 checksum = 4730)) ns3::Icmpv6OptionLinkLayerAddress (( type = 1 length = 1 L2 Address = 00-06-00:00:00:00:00:04)) ns3::EthernetTrailer (fcs=0)
+ 0.003 /NodeList/6/DeviceList/4/$ns3::CsmaNetDevice/TxQueue/Enqueue ns3::EthernetHeader ( length/type=0xffff, source=00:00:00:00:00:06, destination=33:33:ff:00:00:06) ns3::SixLowPanIphc (Compression kind: 31497) ns3::Icmpv6NS (( type = 135 (NS) code = 0 target = 2001:3::200:ff:fe00:6 checksum = 35160)) ns3::Icmpv6OptionLinkLayerAddress (( type = 1 length = 1 L2 Address = 00-06-00:00:00:00:00:06)) ns3::EthernetTrailer (fcs=0)
- 0.003 /NodeList/6/DeviceList/4/$ns3::CsmaNetDevice/TxQueue/Dequeue ns3::EthernetHeader ( length/type=0xffff, source=00:00:00:00:00:06, destination=33:33:ff:00:00:06) ns3::SixLowPanIphc (Compression kind: 31497) ns3::Icmpv6NS (( type = 135 (NS) code = 0 target = 2001:3::200:ff:fe00:6 checksum = 35160)) ns3::Icmpv6OptionLinkLayerAddress (( type = 1 length = 1 L2 Address = 00-06-00:00:00:00:00:06)) ns3::EthernetTrailer (fcs=0)
+ 0.003 /NodeList/3/DeviceList/1/$ns3::CsmaNetDevice/TxQueue/Enqueue ns3::EthernetHeader ( length/type=0xffff, source=00:00:00:00:00:09, destination=33:33:ff:00:00:09) ns3::SixLowPanIphc (Compression kind: 31497) ns3::Icmpv6NS (( type = 135 (NS) code = 0 target = 2001:5::200:ff:fe00:9 checksum = 32344)) ns3::Icmpv6OptionLinkLayerAddress (( type = 1 length = 1 L2 Address = 00-06-00:00:00:00:00:09)) ns3::EthernetTrailer (fcs=0)
- 0.003 /NodeList/3/DeviceList/1/$ns3::CsmaNetDevice/TxQueue/Dequeue ns3::EthernetHeader ( length/type=0xffff, source=00:00:00:00:00:09, destination=33:33:ff:00:00:09) ns3::SixLowPanIphc (Compression kind: 31497) ns3::Icmpv6NS (( type = 135 (NS) code = 0 target = 2001:5::200:ff:fe00:9 checksum = 32344)) ns3::Icmpv6OptionLinkLayerAddress (( type = 1 length = 1 L2 Address = 00-06-00:00:00:00:00:09)) ns3::EthernetTrailer (fcs=0)
+ 0.003 /NodeList/5/DeviceList/1/$ns3::CsmaNetDevice/TxQueue/Enqueue ns3::EthernetHeader ( length/type=0xffff, source=00:00:00:00:00:0b, destination=33:33:ff:00:00:0b) ns3::SixLowPanIphc (Compression kind: 31497) ns3::Icmpv6NS (( type = 135 (NS) code = 0 target = fe80::200:ff:fe00:b checksum = 64889)) ns3::Icmpv6OptionLinkLayerAddress (( type = 1 length = 1 L2 Address = 00-06-00:00:00:00:00:0b)) ns3::EthernetTrailer (fcs=0)
- 0.003 /NodeList/5/DeviceList/1/$ns3::CsmaNetDevice/TxQueue/Dequeue ns3::EthernetHeader ( length/type=0xffff, source=00:00:00:00:00:0b, destination=33:33:ff:00:00:0b) ns3::SixLowPanIphc (Compression kind: 31497) ns3::Icmpv6NS (( type = 135 (NS) code = 0 target = fe80::200:ff:fe00:b checksum = 64889)) ns3::Icmpv6OptionLinkLayerAddress (( type = 1 length = 1 L2 Address = 00-06-00:00:00:00:00:0b)) ns3::EthernetTrailer (fcs=0)
r 0.00312 /NodeList/1/DeviceList/1/$ns3::CsmaNetDevice/MacRx ns3::EthernetHeader ( length/type=0xffff, source=00:00:00:00:00:06, destination=33:33:ff:00:00:06) ns3::SixLowPanIphc (Compression kind: 31497) ns3::Icmpv6NS (( type = 135 (NS) code = 0 target = fe80::200:ff:fe00:6 checksum = 3194)) ns3::Icmpv6OptionLinkLayerAddress (( type = 1 length = 1 L2 Address = 00-06-00:00:00:00:00:06)) ns3::EthernetTrailer (fcs=0)
r 0.00312 /NodeList/2/DeviceList/1/$ns3::CsmaNetDevice/MacRx ns3::EthernetHeader ( length/type=0xffff, source=00:00:00:00:00:08, destination=33:33:ff:00:00:08) ns3::SixLowPanIphc (Compression kind: 31497) ns3::Icmpv6NS (( type = 135 (NS) code = 0 target = fe80::200:ff:fe00:8 checksum = 1658)) ns3::Icmpv6OptionLinkLayerAddress (( type = 1 length = 1 L2 Address = 00-06-00:00:00:00:00:08)) ns3::EthernetTrailer (fcs=0)
r 0.003144 /NodeList/7/DeviceList/2/$ns3::CsmaNetDevice/MacRx ns3::EthernetHeader ( length/type=0x86dd, source=00:00:00:00:00:01, destination=33:33:ff:00:00:01) ns3::Ipv6Header ((Version 6 Traffic class 0x0 DSCP Default Flow Label 0x0 Payload Length 32 Next Header 58 Hop Limit 255 ):: > ff02::1:ff00:1) ns3::Icmpv6NS (( type = 135 (NS) code = 0 target = 2001:2::200:ff:fe00:1 checksum = 39256)) ns3::Icmpv6OptionLinkLayerAddress (( type = 1 length = 1 L2 Address = 00-06-00:00:00:00:00:01)) ns3::EthernetTrailer (fcs=0)
+ 0.004 /NodeList/6/DeviceList/2/$ns3::CsmaNetDevice/TxQueue/Enqueue ns3::EthernetHeader ( length/type=0x86dd, source=00:00:00:00:00:01, destination=33:33:ff:00:00:01) ns3::Ipv6Header ((Version 6 Traffic class 0x0 DSCP Default Flow Label 0x0 Payload Length 32 Next Header 58 Hop Limit 255 ):: > ff02::1:ff00:1) ns3::Icmpv6NS (( type = 135 (NS) code = 0 target = fe80::200:ff:fe00:1 checksum = 7034)) ns3::Icmpv6OptionLinkLayerAddress (( type = 1 length = 1 L2 Address = 00-06-00:00:00:00:00:01)) ns3::EthernetTrailer (fcs=0)
- 0.004 /NodeList/6/DeviceList/2/$ns3::CsmaNetDevice/TxQueue/Dequeue ns3::EthernetHeader ( length/type=0x86dd, source=00:00:00:00:00:01, destination=33:33:ff:00:00:01) ns3::Ipv6Header ((Version 6 Traffic class 0x0 DSCP Default Flow Label 0x0 Payload Length 32 Next Header 58 Hop Limit 255 ):: > ff02::1:ff00:1) ns3::Icmpv6NS (( type = 135 (NS) code = 0 target = fe80::200:ff:fe00:1 checksum = 7034)) ns3::Icmpv6OptionLinkLayerAddress (( type = 1 length = 1 L2 Address = 00-06-00:00:00:00:00:01)) ns3::EthernetTrailer (fcs=0)
r 0.00412 /NodeList/0/DeviceList/2/$ns3::CsmaNetDevice/MacRx ns3::EthernetHeader ( length/type=0xffff, source=00:00:00:00:00:04, destination=33:33:ff:00:00:04) ns3::SixLowPanIphc (Compression kind: 31497) ns3::Icmpv6NS (( type = 135 (NS) code = 0 target = 2001:1::200:ff:fe00:4 checksum = 37208)) ns3::Icmpv6OptionLinkLayerAddress (( type = 1 length = 1 L2 Address = 00-06-00:00:00:00:00:04)) ns3::EthernetTrailer (fcs=0)
r 0.00412 /NodeList/6/DeviceList/7/$ns3::CsmaNetDevice/MacRx ns3::EthernetHeader ( length/type=0xffff, source=00:00:00:00:00:0b, destination=33:33:ff:00:00:0b) ns3::SixLowPanIphc (Compression kind: 31497) ns3::Icmpv6NS (( type = 135 (NS) code = 0 target = 2001:6::200:ff:fe00:b checksum = 30552)) ns3::Icmpv6OptionLinkLayerAddress (( type = 1 length = 1 L2 Address = 00-06-00:00:00:00:00:0b)) ns3::EthernetTrailer (fcs=0)
+ 0.005 /NodeList/6/DeviceList/6/$ns3::CsmaNetDevice/TxQueue/Enqueue ns3::EthernetHeader ( length/type=0xffff, source=00:00:00:00:00:0a, destination=33:33:ff:00:00:0a) ns3::SixLowPanIphc (Compression kind: 31497) ns3::Icmpv6NS (( type = 135 (NS) code = 0 target = 2001:5::200:ff:fe00:a checksum = 31576)) ns3::Icmpv6OptionLinkLayerAddress (( type = 1 length = 1 L2 Address = 00-06-00:00:00:00:00:0a)) ns3::EthernetTrailer (fcs=0)
- 0.005 /NodeList/6/DeviceList/6/$ns3::CsmaNetDevice/TxQueue/Dequeue ns3::EthernetHeader ( length/type=0xffff, source=00:00:00:00:00:0a, destination=33:33:ff:00:00:0a) ns3::SixLowPanIphc (Compression kind: 31497) ns3::Icmpv6NS (( type = 135 (NS) code = 0 target = 2001:5::200:ff:fe00:a checksum = 31576)) ns3::Icmpv6OptionLinkLayerAddress (( type = 1 length = 1 L2 Address = 00-06-00:00:00:00:00:0a)) ns3::EthernetTrailer (fcs=0)
r 0.00512 /NodeList/6/DeviceList/6/$ns3::CsmaNetDevice/MacRx ns3::EthernetHeader ( length/type=0xffff, source=00:00:00:00:00:09, destination=33:33:ff:00:00:09) ns3::SixLowPanIphc (Compression kind: 31497) ns3::Icmpv6NS (( type = 135 (NS) code = 0 target = 2001:5::200:ff:fe00:9 checksum = 32344)) ns3::Icmpv6OptionLinkLayerAddress (( type = 1 length = 1 L2 Address = 00-06-00:00:00:00:00:09)) ns3::EthernetTrailer (fcs=0)
r 0.00545 /NodeList/1/DeviceList/1/$ns3::CsmaNetDevice/MacRx ns3::EthernetHeader ( length/type=0xffff, source=00:00:00:00:00:06, destination=33:33:ff:00:00:06) ns3::SixLowPanIphc (Compression kind: 31497) ns3::Icmpv6NS (( type = 135 (NS) code = 0 target = 2001:3::200:ff:fe00:6 checksum = 35160)) ns3::Icmpv6OptionLinkLayerAddress (( type = 1 length = 1 L2 Address = 00-06-00:00:00:00:00:06)) ns3::EthernetTrailer (fcs=0)
r 0.005682 /NodeList/6/DeviceList/5/$ns3::CsmaNetDevice/MacRx ns3::EthernetHeader ( length/type=0xffff, source=00:00:00:00:00:07, destination=33:33:ff:00:00:07) ns3::SixLowPanIphc (Compression kind: 31497) ns3::Icmpv6NS (( type = 135 (NS) code = 0 target = 2001:4::200:ff:fe00:7 checksum = 34136)) ns3::Icmpv6OptionLinkLayerAddress (( type = 1 length = 1 L2 Address = 00-06-00:00:00:00:00:07)) ns3::EthernetTrailer (fcs=0)
+ 0.006 /NodeList/1/DeviceList/1/$ns3::CsmaNetDevice/TxQueue/Enqueue ns3::EthernetHeader ( length/type=0xffff, source=00:00:00:00:00:05, destination=33:33:ff:00:00:05) ns3::SixLowPanIphc (Compression kind: 31497) ns3::Icmpv6NS (( type = 135 (NS) code = 0 target = fe80::200:ff:fe00:5 checksum = 3962)) ns3::Icmpv6OptionLinkLayerAddress (( type = 1 length = 1 L2 Address = 00-06-00:00:00:00:00:05)) ns3::EthernetTrailer (fcs=0)
- 0.006 /NodeList/1/DeviceList/1/$ns3::CsmaNetDevice/TxQueue/Dequeue ns3::EthernetHeader ( length/type=0xffff, source=00:00:00:00:00:05, destination=33:33:ff:00:00:05) ns3::SixLowPanIphc (Compression kind: 31497) ns3::Icmpv6NS (( type = 135 (NS) code = 0 target = fe80::200:ff:fe00:5 checksum = 3962)) ns3::Icmpv6OptionLinkLayerAddress (( type = 1 length = 1 L2 Address = 00-06-00:00:00:00:00:05)) ns3::EthernetTrailer (fcs=0)
+ 0.006 /NodeList/1/DeviceList/1/$ns3::CsmaNetDevice/TxQueue/Enqueue ns3::EthernetHeader ( length/type=0xffff, source=00:00:00:00:00:05, destination=33:33:ff:00:00:05) ns3::SixLowPanIphc (Compression kind: 31497) ns3::Icmpv6NS (( type = 135 (NS) code = 0 target = 2001:3::200:ff:fe00:5 checksum = 35928)) ns3::Icmpv6OptionLinkLayerAddress (( type = 1 length = 1 L2 Address = 00-06-00:00:00:00:00:05)) ns3::EthernetTrailer (fcs=0)
+ 0.006 /NodeList/2/DeviceList/1/$ns3::CsmaNetDevice/TxQueue/Enqueue ns3::EthernetHeader ( length/type=0xffff, source=00:00:00:00:00:07, destination=33:33:ff:00:00:07) ns3::SixLowPanIphc (Compression kind: 31497) ns3::Icmpv6NS (( type = 135 (NS) code = 0 target = fe80::200:ff:fe00:7 checksum = 2426)) ns3::Icmpv6OptionLinkLayerAddress (( type = 1 length = 1 L2 Address = 00-06-00:00:00:00:00:07)) ns3::EthernetTrailer (fcs=0)
- 0.006 /NodeList/2/DeviceList/1/$ns3::CsmaNetDevice/TxQueue/Dequeue ns3::EthernetHeader ( length/type=0xffff, source=00:00:00:00:00:07, destination=33:33:ff:00:00:07) ns3::SixLowPanIphc (Compression kind: 31497) ns3::Icmpv6NS (( type = 135 (NS) code = 0 target = fe80::200:ff:fe00:7 checksum = 2426)) ns3::Icmpv6OptionLinkLayerAddress (( type = 1 length = 1 L2 Address = 00-06-00:00:00:00:00:07)) ns3::EthernetTrailer (fcs=0)
- 0.0061392 /NodeList/1/DeviceList/1/$ns3::CsmaNetDevice/TxQueue/Dequeue ns3::EthernetHeader ( length/type=0xffff, source=00:00:00:00:00:05, destination=33:33:ff:00:00:05) ns3::SixLowPanIphc (Compression kind: 31497) ns3::Icmpv6NS (( type = 135 (NS) code = 0 target = 2001:3::200:ff:fe00:5 checksum = 35928)) ns3::Icmpv6OptionLinkLayerAddress (( type = 1 length = 1 L2 Address = 00-06-00:00:00:00:00:05)) ns3::EthernetTrailer (fcs=0)
r 0.006144 /NodeList/7/DeviceList/2/$ns3::CsmaNetDevice/MacRx ns3::EthernetHeader ( length/type=0x86dd, source=00:00:00:00:00:01, destination=33:33:ff:00:00:01) ns3::Ipv6Header ((Version 6 Traffic class 0x0 DSCP Default Flow Label 0x0 Payload Length 32 Next Header 58 Hop Limit 255 ):: > ff02::1:ff00:1) ns3::Icmpv6NS (( type = 135 (NS) code = 0 target = fe80::200:ff:fe00:1 checksum = 7034)) ns3::Icmpv6OptionLinkLayerAddress (( type = 1 length = 1 L2 Address = 00-06-00:00:00:00:00:01)) ns3::EthernetTrailer (fcs=0)
r 0.006334 /NodeList/6/DeviceList/7/$ns3::CsmaNetDevice/MacRx ns3::EthernetHeader ( length/type=0xffff, source=00:00:00:00:00:0b, destination=33:33:ff:00:00:0b) ns3::SixLowPanIphc (Compression kind: 31497) ns3::Icmpv6NS (( type = 135 (NS) code = 0 target = fe80::200:ff:fe00:b checksum = 64889)) ns3::Icmpv6OptionLinkLayerAddress (( type = 1 length = 1 L2 Address = 00-06-00:00:00:00:00:0b)) ns3::EthernetTrailer (fcs=0)
- 0.0066572 /NodeList/6/DeviceList/7/$ns3::CsmaNetDevice/TxQueue/Dequeue ns3::EthernetHeader ( length/type=0xffff, source=00:00:00:00:00:0c, destination=33:33:ff:00:00:0c) ns3::SixLowPanIphc (Compression kind: 31497) ns3::Icmpv6NS (( type = 135 (NS) code = 0 target = 2001:6::200:ff:fe00:c checksum = 29784)) ns3::Icmpv6OptionLinkLayerAddress (( type = 1 length = 1 L2 Address = 00-06-00:00:00:00:00:0c)) ns3::EthernetTrailer (fcs=0)
+ 0.007 /NodeList/0/DeviceList/2/$ns3::CsmaNetDevice/TxQueue/Enqueue ns3::EthernetHeader ( length/type=0xffff, source=00:00:00:00:00:03, destination=33:33:ff:00:00:03) ns3::SixLowPanIphc (Compression kind: 31497) ns3::Icmpv6NS (( type = 135 (NS) code = 0 target = 2001:1::200:ff:fe00:3 checksum = 37976)) ns3::Icmpv6OptionLinkLayerAddress (( type = 1 length = 1 L2 Address = 00-06-00:00:00:00:00:03)) ns3::EthernetTrailer (fcs=0)
- 0.007 /NodeList/0/DeviceList/2/$ns3::CsmaNetDevice/TxQueue/Dequeue ns3::EthernetHeader ( length/type=0xffff, source=00:00:00:00:00:03, destination=33:33:ff:00:00:03) ns3::SixLowPanIphc (Compression kind: 31497) ns3::Icmpv6NS (( type = 135 (NS) code = 0 target = 2001:1::200:ff:fe00:3 checksum = 37976)) ns3::Icmpv6OptionLinkLayerAddress (( type = 1 length = 1 L2 Address = 00-06-00:00:00:00:00:03)) ns3::EthernetTrailer (fcs=0)
+ 0.007 /NodeList/6/DeviceList/6/$ns3::CsmaNetDevice/TxQueue/Enqueue ns3::EthernetHeader ( length/type=0xffff, source=00:00:00:00:00:0a, destination=33:33:ff:00:00:0a) ns3::SixLowPanIphc (Compression kind: 31497) ns3::Icmpv6NS (( type = 135 (NS) code = 0 target = fe80::200:ff:fe00:a checksum = 122)) ns3::Icmpv6OptionLinkLayerAddress (( type = 1 length = 1 L2 Address = 00-06-00:00:00:00:00:0a)) ns3::EthernetTrailer (fcs=0)
- 0.007 /NodeList/6/DeviceList/6/$ns3::CsmaNetDevice/TxQueue/Dequeue ns3::EthernetHeader ( length/type=0xffff, source=00:00:00:00:00:0a, destination=33:33:ff:00:00:0a) ns3::SixLowPanIphc (Compression kind: 31497) ns3::Icmpv6NS (( type = 135 (NS) code = 0 target = fe80::200:ff:fe00:a checksum = 122)) ns3::Icmpv6OptionLinkLayerAddress (( type = 1 length = 1 L2 Address = 00-06-00:00:00:00:00:0a)) ns3::EthernetTrailer (fcs=0)
r 0.007129 /NodeList/0/DeviceList/2/$ns3::CsmaNetDevice/MacRx ns3::EthernetHeader ( length/type=0xffff, source=00:00:00:00:00:04, destination=33:33:ff:00:00:04) ns3::SixLowPanIphc (Compression kind: 31497) ns3::Icmpv6NS (( type = 135 (NS) code = 0 target = fe80::200:ff:fe00:4 checksum = 4730)) ns3::Icmpv6OptionLinkLayerAddress (( type = 1 length = 1 L2 Address = 00-06-00:00:00:00:00:04)) ns3::EthernetTrailer (fcs=0)
r 0.007294 /NodeList/3/DeviceList/1/$ns3::CsmaNetDevice/MacRx ns3::EthernetHeader ( length/type=0xffff, source=00:00:00:00:00:0a, destination=33:33:ff:00:00:0a) ns3::SixLowPanIphc (Compression kind: 31497) ns3::Icmpv6NS (( type = 135 (NS) code = 0 target = 2001:5::200:ff:fe00:a checksum = 31576)) ns3::Icmpv6OptionLinkLayerAddress (( type = 1 length = 1 L2 Address = 00-06-00:00:00:00:00:0a)) ns3::EthernetTrailer (fcs=0)
+ 0.008 /NodeList/7/DeviceList/2/$ns3::CsmaNetDevice/TxQueue/Enqueue ns3::EthernetHeader ( length/type=0x86dd, source=00:00:00:00:00:02, destination=33:33:ff:00:00:02) ns3::Ipv6Header ((Version 6 Traffic class 0x0 DSCP Default Flow Label 0x0 Payload Length 32 Next Header 58 Hop Limit 255 ):: > ff02::1:ff00:2) ns3::Icmpv6NS (( type = 135 (NS) code = 0 target = fe80::200:ff:fe00:2 checksum = 6266)) ns3::Icmpv6OptionLinkLayerAddress (( type = 1 length = 1 L2 Address = 00-06-00:00:00:00:00:02)) ns3::EthernetTrailer (fcs=0)
- 0.008 /NodeList/7/DeviceList/2/$ns3::CsmaNetDevice/TxQueue/Dequeue ns3::EthernetHeader ( length/type=0x86dd, source=00:00:00:00:00:02, destination=33:33:ff:00:00:02) ns3::Ipv6Header ((Version 6 Traffic class 0x0 DSCP Default Flow Label 0x0 Payload Length 32 Next Header 58 Hop Limit 255 ):: > ff02::1:ff00:2) ns3::Icmpv6NS (( type = 135 (NS) code = 0 target = fe80::200:ff:fe00:2 checksum = 6266)) ns3::Icmpv6OptionLinkLayerAddress (( type = 1 length = 1 L2 Address = 00-06-00:00:00:00:00:02)) ns3::EthernetTrailer (fcs=0)
r 0.00812 /NodeList/6/DeviceList/4/$ns3::CsmaNetDevice/MacRx ns3::EthernetHeader ( length/type=0xffff, source=00:00:00:00:00:05, destination=33:33:ff:00:00:05) ns3::SixLowPanIphc (Compression kind: 31497) ns3::Icmpv6NS (( type = 135 (NS) code = 0 target = fe80::200:ff:fe00:5 checksum = 3962)) ns3::Icmpv6OptionLinkLayerAddress (( type = 1 length = 1 L2 Address = 00-06-00:00:00:00:00:05)) ns3::EthernetTrailer (fcs=0)
r 0.00812 /NodeList/6/DeviceList/5/$ns3::CsmaNetDevice/MacRx ns3::EthernetHeader ( length/type=0xffff, source=00:00:00:00:00:07, destination=33:33:ff:00:00:07) ns3::SixLowPanIphc (Compression kind: 31497) ns3::Icmpv6NS (( type = 135 (NS) code = 0 target = fe80::200:ff:fe00:7 checksum = 2426)) ns3::Icmpv6OptionLinkLayerAddress (( type = 1 length = 1 L2 Address = 00-06-00:00:00:00:00:07)) ns3::EthernetTrailer (fcs=0)
r 0.008638 /NodeList/5/DeviceList/1/$ns3::CsmaNetDevice/MacRx ns3::EthernetHeader ( length/type=0xffff, source=00:00:00:00:00:0c, destination=33:33:ff:00:00:0c) ns3::SixLowPanIphc (Compression kind: 31497) ns3::Icmpv6NS (( type = 135 (NS) code = 0 target = fe80::200:ff:fe00:c checksum = 64121)) ns3::Icmpv6OptionLinkLayerAddress (( type = 1 length = 1 L2 Address = 00-06-00:00:00:00:00:0c)) ns3::EthernetTrailer (fcs=0)
+ 0.009 /NodeList/0/DeviceList/2/$ns3::CsmaNetDevice/TxQueue/Enqueue ns3::EthernetHeader ( length/type=0xffff, source=00:00:00:00:00:03, destination=33:33:ff:00:00:03) ns3::SixLowPanIphc (Compression kind: 31497) ns3::Icmpv6NS (( type = 135 (NS) code = 0 target = fe80::200:ff:fe00:3 checksum = 5498)) ns3::Icmpv6OptionLinkLayerAddress (( type = 1 length = 1 L2 Address = 00-06-00:00:00:00:00:03)) ns3::EthernetTrailer (fcs=0)
- 0.009 /NodeList/0/DeviceList/2/$ns3::CsmaNetDevice/TxQueue/Dequeue ns3::EthernetHeader ( length/type=0xffff, source=00:00:00:00:00:03, destination=33:33:ff:00:00:03) ns3::SixLowPanIphc (Compression kind: 31497) ns3::Icmpv6NS (( type = 135 (NS) code = 0 target = fe80::200:ff:fe00:3 checksum = 5498)) ns3::Icmpv6OptionLinkLayerAddress (( type = 1 length = 1 L2 Address = 00-06-00:00:00:00:00:03)) ns3::EthernetTrailer (fcs=0)
+ 0.009 /NodeList/6/DeviceList/5/$ns3::CsmaNetDevice/TxQueue/Enqueue ns3::EthernetHeader ( length/type=0xffff, source=00:00:00:00:00:08, destination=33:33:ff:00:00:08) ns3::SixLowPanIphc (Compression kind: 31497) ns3::Icmpv6NS (( type = 135 (NS) code = 0 target = 2001:4::200:ff:fe00:8 checksum = 33368)) ns3::Icmpv6OptionLinkLayerAddress (( type = 1 length = 1 L2 Address = 00-06-00:00:00:00:00:08)) ns3::EthernetTrailer (fcs=0)
- 0.009 /NodeList/6/DeviceList/5/$ns3::CsmaNetDevice/TxQueue/Dequeue ns3::EthernetHeader ( length/type=0xffff, source=00:00:00:00:00:08, destination=33:33:ff:00:00:08) ns3::SixLowPanIphc (Compression kind: 31497) ns3::Icmpv6NS (( type = 135 (NS) code = 0 target = 2001:4::200:ff:fe00:8 checksum = 33368)) ns3::Icmpv6OptionLinkLayerAddress (( type = 1 length = 1 L2 Address = 00-06-00:00:00:00:00:08)) ns3::EthernetTrailer (fcs=0)
+ 0.009 /NodeList/3/DeviceList/1/$ns3::CsmaNetDevice/TxQueue/Enqueue ns3::EthernetHeader ( length/type=0xffff, source=00:00:00:00:00:09, destination=33:33:ff:00:00:09) ns3::SixLowPanIphc (Compression kind: 31497) ns3::Icmpv6NS (( type = 135 (NS) code = 0 target = fe80::200:ff:fe00:9 checksum = 890)) ns3::Icmpv6OptionLinkLayerAddress (( type = 1 length = 1 L2 Address = 00-06-00:00:00:00:00:09)) ns3::EthernetTrailer (fcs=0)
- 0.009 /NodeList/3/DeviceList/1/$ns3::CsmaNetDevice/TxQueue/Dequeue ns3::EthernetHeader ( length/type=0xffff, source=00:00:00:00:00:09, destination=33:33:ff:00:00:09) ns3::SixLowPanIphc (Compression kind: 31497) ns3::Icmpv6NS (( type = 135 (NS) code = 0 target = fe80::200:ff:fe00:9 checksum = 890)) ns3::Icmpv6OptionLinkLayerAddress (( type = 1 length = 1 L2 Address = 00-06-00:00:00:00:00:09)) ns3::EthernetTrailer (fcs=0)
+ 0.009 /NodeList/7/DeviceList/2/$ns3::CsmaNetDevice/TxQueue/Enqueue ns3::EthernetHeader ( length/type=0x86dd, source=00:00:00:00:00:02, destination=33:33:ff:00:00:02) ns3::Ipv6Header ((Version 6 Traffic class 0x0 DSCP Default Flow Label 0x0 Payload Length 32 Next Header 58 Hop Limit 255 ):: > ff02::1:ff00:2) ns3::Icmpv6NS (( type = 135 (NS) code = 0 target = 2001:2::200:ff:fe00:2 checksum = 38488)) ns3::Icmpv6OptionLinkLayerAddress (( type = 1 length = 1 L2 Address = 00-06-00:00:00:00:00:02)) ns3::EthernetTrailer (fcs=0)
- 0.009 /NodeList/7/DeviceList/2/$ns3::CsmaNetDevice/TxQueue/Dequeue ns3::EthernetHeader ( length/type=0x86dd, source=00:00:00:00:00:02, destination=33:33:ff:00:00:02) ns3::Ipv6Header ((Version 6 Traffic class 0x0 DSCP Default Flow Label 0x0 Payload Length 32 Next Header 58 Hop Limit 255 ):: > ff02::1:ff00:2) ns3::Icmpv6NS (( type = 135 (NS) code = 0 target = 2001:2::200:ff:fe00:2 checksum = 38488)) ns3::Icmpv6OptionLinkLayerAddress (( type = 1 length = 1 L2 Address = 00-06-00:00:00:00:00:02)) ns3::EthernetTrailer (fcs=0)
r 0.009261 /NodeList/6/DeviceList/3/$ns3::CsmaNetDevice/MacRx ns3::EthernetHeader ( length/type=0xffff, source=00:00:00:00:00:03, destination=33:33:ff:00:00:03) ns3::SixLowPanIphc (Compression kind: 31497) ns3::Icmpv6NS (( type = 135 (NS) code = 0 target = 2001:1::200:ff:fe00:3 checksum = 37976)) ns3::Icmpv6OptionLinkLayerAddress (( type = 1 length = 1 L2 Address = 00-06-00:00:00:00:00:03)) ns3::EthernetTrailer (fcs=0)
r 0.009646 /NodeList/3/DeviceList/1/$ns3::CsmaNetDevice/MacRx ns3::EthernetHeader ( length/type=0xffff, source=00:00:00:00:00:0a, destination=33:33:ff:00:00:0a) ns3::SixLowPanIphc (Compression kind: 31497) ns3::Icmpv6NS (( type = 135 (NS) code = 0 target = fe80::200:ff:fe00:a checksum = 122)) ns3::Icmpv6OptionLinkLayerAddress (( type = 1 length = 1 L2 Address = 00-06-00:00:00:00:00:0a)) ns3::EthernetTrailer (fcs=0)
r 0.010144 /NodeList/6/DeviceList/2/$ns3::CsmaNetDevice/MacRx ns3::EthernetHeader ( length/type=0x86dd, source=00:00:00:00:00:02, destination=33:33:ff:00:00:02) ns3::Ipv6Header ((Version 6 Traffic class 0x0 DSCP Default Flow Label 0x0 Payload Length 32 Next Header 58 Hop Limit 255 ):: > ff02::1:ff00:2) ns3::Icmpv6NS (( type = 135 (NS) code = 0 target = fe80::200:ff:fe00:2 checksum = 6266)) ns3::Icmpv6OptionLinkLayerAddress (( type = 1 length = 1 L2 Address = 00-06-00:00:00:00:00:02)) ns3::EthernetTrailer (fcs=0)
r 0.0109172 /NodeList/6/DeviceList/4/$ns3::CsmaNetDevice/MacRx ns3::EthernetHeader ( length/type=0xffff, source=00:00:00:00:00:05, destination=33:33:ff:00:00:05) ns3::SixLowPanIphc (Compression kind: 31497) ns3::Icmpv6NS (( type = 135 (NS) code = 0 target = 2001:3::200:ff:fe00:5 checksum = 35928)) ns3::Icmpv6OptionLinkLayerAddress (( type = 1 length = 1 L2 Address = 00-06-00:00:00:00:00:05)) ns3::EthernetTrailer (fcs=0)